% Model:              2-D model without Neumann boundary.mph
% Version:            COMSOL 5.2.1.152
% Date:               Dec 12 2018, 15:34
% Dimension:          2
% Nodes:              218
% Expressions:        1
% Description:        温度
% Length unit:        m
% r                       z                        T (K)
0.02                      0                        293.15
0.028466225178970257      0                        293.15
0.025531304479688027      0.005382951920663119     297.8724064360992
0.02                      0.008                    300.34065642301204
0.03740717422612565       0                        293.15
0.03300238296654072       0.006944058383538907     298.84535570566237
0.02                      0.016                    308.1072518764057
0.02623675529648113       0.011970743295442662     303.84281348477003
0.04634900647953627       0                        293.15
0.04222984372461838       0.006681242309493672     297.8554391190318
0.02                      0.024000000000000004     317.14188292306835
0.026419742192930633      0.019684884692317377     311.58334058704355
0.05529083873294689       0                        293.15
0.05096023952370876       0.006794644691059691     297.067964273172
0.06423267098635752       0                        293.15
0.05959892024024902       0.0070275553261748055    296.3108151277433
0.02                      0.03200000000000001      328.3961287955162
0.026579274462479614      0.027373435489476093     320.72123726793683
0.07317450323976814       0                        293.15
0.06851169094152765       0.007201721319810249     295.5150399353601
0.08211633549317876       0                        293.15
0.07754735327966185       0.007251951040529932     294.73846784339315
0.02                      0.04                     343.25120315174024
0.026143345089436824      0.03388057831935191      330.44591783980843
0.029815132917010326      0.04                     339.72415467116497
0.09105816774658938       0                        293.15
0.08619158532316694       0.006442294353334747     293.96802528617394
0.1                       0                        293.15
0.09381570677583313       0.005889532667657809     293.46981695490905
0.04                      0.04                     329.8075368580702
0.034021334406869705      0.031577136714635995     323.4047647959173
0.1                       0.00913448514434536      293.15
0.04                      0.04857142857142853      339.2069868209254
0.04765731612162651       0.04467738449239267      324.7842764306328
0.1                       0.01849833818115786      293.15
0.0918287808094094        0.013870883840608937     294.151442168031
0.04                      0.057142857142857106     345.1000515545372
0.0473852553648085        0.052991534161061206     330.166227152673
0.1                       0.027862276693674592     293.15
0.0925429000924655        0.023599799850356578     294.67659469106223
0.04                      0.0657142857142857       347.9383476527566
0.04733607423861993       0.06142647144360406      333.4045047377101
0.1                       0.03722621520619133      293.15
0.09242862560993231       0.032624060405982425     295.2428825378886
0.04                      0.07428571428571427      347.9382353682827
0.04729604663725687       0.06992909960537234      334.54804690190826
0.02                      0.10800000000000001      328.39652758666807
0.02                      0.1                      343.25014552489324
0.02589526454165581       0.1060273923693183       330.6798783808149
0.02                      0.11600000000000002      317.1419682045648
0.026448341977635386      0.11242981080229009      321.01401788218146
0.1                       0.04659015371870806      293.15
0.09227134310588074       0.04190277432449405      295.78760908329895
0.04                      0.08285714285714287      345.09922278044286
0.047261920614307514      0.07843484209928403      333.5560769333719
0.02981513291701033       0.1                      339.7220115627187
0.04000000000000001       0.09142857142857143      339.2053920445511
0.04728002873512781       0.08682449602901204      330.40925473016847
0.02                      0.12400000000000003      308.1073338154605
0.026347937325347178      0.12005977210754436      311.8710269899797
0.1                       0.05595409223122479      293.15
0.09222127121754822       0.05126311875593795      296.2040937494716
0.04                      0.1                      329.8056068050652
0.033719493589874305      0.10797971786253363      324.16201469318315
0.04761652546742417       0.09505553335881994      325.01893616003423
0.02                      0.132                    300.34070836941373
0.026274009746413238      0.12780281203846258      304.05395898520436
0.02                      0.14                     293.15
0.02552647077256105       0.13443501055351353      298.0344225661821
0.1                       0.06531803074374153      293.15
0.09226806328722877       0.06062562855950456      296.4386980084518
0.02846622517897028       0.14                     293.15
0.1                       0.07468196925625825      293.15
0.09230665154095374       0.06995380652417048      296.50862494399627
0.03740717422612561       0.14                     293.15
0.03316088544720524       0.1326113750517373       299.2043319033659
0.1                       0.08404590776877499      293.15
0.09230338695249163       0.07928837711858307      296.4245062252135
0.04634900647953623       0.14                     293.15
0.042489677281501645      0.13309895213574943      297.9870434202446
0.1                       0.09340984628129172      293.15
0.09221612026755437       0.08862184795383075      296.21028203359305
0.05529083873294684       0.14                     293.15
0.05099127034729223       0.13309491952451746      297.12895811339325
0.1                       0.10277378479380846      293.15
0.09212224419236452       0.09798704430010143      295.8465547665459
0.06423267098635746       0.14                     293.15
0.05953225773087313       0.13295153619078848      296.32693840398775
0.1                       0.11213772330632518      293.15
0.0922207939686331        0.10736998121765742      295.3034884400317
0.07317450323976807       0.14                     293.15
0.06818721233047688       0.13280066368371687      295.5444760078642
0.1                       0.12150166181884191      293.15
0.09266868069432          0.11667059125017347      294.63333301434756
0.08211633549317868       0.14                     293.15
0.07673786312955425       0.1326134536515025       294.836022444486
0.1                       0.13086551485565462      293.15
0.09328265035029558       0.1258116917819782       293.98457993881857
0.0910581677465893        0.14                     293.15
0.08607119597878404       0.131806535387045        294.1995506341204
0.1                       0.14                     293.15
0.09408240281513378       0.13369674840493556      293.4768747570476
0.03934293675601625       0.013572068383360716     303.452722439996
0.0324671021397274        0.015812564776136556     306.6853053579841
0.047079120778936064      0.013364163926743583     301.7454346982707
0.03764324013191981       0.019392869938046134     308.7860110168886
0.0436359307943551        0.01923751096620543      306.8509027080263
0.03280627069769545       0.023146580766105707     313.9188452643219
0.05521370718596597       0.013694906583946086     300.24130055757456
0.05091904133126097       0.019841077953521125     304.9238435918794
0.03970693085224551       0.025038592986022068     313.27486077699336
0.0468153938683845        0.025462777784145844     310.41211427578895
0.06385452605080358       0.014295734003705896     298.74779249131524
0.05888270936761766       0.020840375681512705     302.87869406277065
0.05373827941953266       0.02645513934984114      307.8610585796742
0.04309351522268157       0.03160362358884856      317.69176617916327
0.049516922573251396      0.030711696436335176     312.85880739018734
0.07286013393334129       0.014684341410816669     297.16982822356914
0.0815828220595958        0.014052430683443997     295.5957843830158
0.06804522084875536       0.022549360554376504     300.69886093210454
0.061308286628028674      0.028413106237358435     305.4294127068915
0.054987322748652735      0.03346180200617354      311.25654122421423
0.048490930419756606      0.03683582314277659      318.11435215736225
0.08579786672987164       0.02055873342741921      295.8104780288033
0.0777535284493042        0.022965020165779407     298.07713257077563
0.07292745252671011       0.027478638790856623     300.5811845892731
0.06879238056348923       0.031153865076326274     303.1987823442198
0.06264834723854651       0.03618403403270308      307.9740081094763
0.05532077143363064       0.040786739497460284     315.0055970460997
0.08520212740557967       0.028184506553296424     296.9114356513535
0.07686965779121813       0.03185709493366708      300.19588397169764
0.07036262160833903       0.03659521339324671      304.05820021847586
0.06779803192553616       0.04180454417443096      306.84984762671985
0.05474693951156328       0.048878781581629414     319.37900223901903
0.06171577368999033       0.04489549201101163      311.8175750785845
0.0846611505483893        0.03713152180228325      298.16314656597956
0.0757046905229052        0.04197652874910614      302.670365778032
0.06933428657277435       0.04856834589695873      307.5554558600747
0.054714313971485816      0.057183700641362474     322.32751568792764
0.06202856303906409       0.05291084317566247      313.96871050074145
0.0843190220717816        0.04658875312449788      299.2916391105687
0.07663710675743113       0.05141776999917481      303.6499265036858
0.06955903694873118       0.056667481701135905     308.82118710292553
0.054704185832844886      0.06562803719886862      323.88954873792363
0.062101027539839544      0.06127125722187667      315.51470781246456
0.08450376020807238       0.055986286127936324     299.922166920528
0.07698630056619014       0.06076916256736376      304.34575667267103
0.05469928903964321       0.07412983100752459      323.91766738741995
0.0695052612380926        0.06540460377391871      309.6833654760771
0.062097121875558964      0.06983351953183277      316.101483590016
0.03272130713729166       0.11652103566132395      314.30313923881266
0.0846322076990671        0.06528499221231654      300.2262223811261
0.07708146306427402       0.06985427484255846      304.58839757105176
0.05469268742919408       0.08255388113272948      322.42269067814294
0.062170667138527876      0.07840807569926803      315.49200880667416
0.0696286467540823        0.07423187474490463      309.60750066253814
0.05482301925851638       0.09078225294170866      319.4450864343948
0.042997751120096454      0.10815867246561961      317.98281652497644
0.039565036089927855      0.11457923663522916      313.70195015353016
0.03762647437288618       0.12021014686779749      309.14982983804515
0.03260160824282273       0.12387404708299397      306.9539401823021
0.08468435442077508       0.07453591919857148      300.2025495626519
0.07715714104070012       0.07894191721654499      304.2605618936736
0.062164604493921416      0.08675650313271976      313.93500599327234
0.06976022616734015       0.08294885740530482      308.730095921328
0.06214423318139806       0.09468281964949488      311.64369698335946
0.0552860431793217        0.09880152920607177      315.24560141996017
0.04846817392170403       0.10295327105215618      318.2935848251637
0.049422921140335634      0.10918245022178963      312.9914293036999
0.04675556846447436       0.11432360601541544      310.60259660840717
0.04356646331740146       0.1202833271704256       307.2460098163552
0.03947298615614953       0.126048193958078        303.73142446321845
0.08463317536874679       0.08389462400632228      299.86508444942405
0.07716032051171397       0.08818773752643513      303.4074285115799
0.06939679378855189       0.09116313196781282      307.5712440870779
0.06805720533778015       0.09777014826065078      306.8144413164137
0.0631769085206738        0.10281362586786012      308.05309568065144
0.05549308208956815       0.10652068620884464      310.9551381011922
0.0540407342953684        0.11353566826029403      307.72790069608624
0.05096236791913858       0.12005414174841096      304.9754622685727
0.047016346901832255      0.12648463779762248      301.8594739683476
0.08428485679283564       0.09316900236286935      299.3293631087167
0.07550505108014212       0.09755415059224189      302.8540984525739
0.07006304011813483       0.10263701322584415      304.4111349827272
0.06838562268146606       0.10752632307164388      303.7831883693435
0.062815109039104         0.11175273999395043      304.70386764849746
0.059059520541921935      0.11941938858687225      302.69810405178447
0.05516378083733026       0.1263134395578143       300.2472117329685
0.08401169412516396       0.10257780319115084      298.4371763362241
0.0755709713886598        0.10736721705225202      300.84744699391337
0.07018853950491245       0.11246704933686422      301.55686889026754
0.0677831515483512        0.1189082784938418       300.2877046191363
0.06359197961223917       0.1259520634669221       298.7013449222373
0.08445571904777587       0.11202691605535446      297.0953479532224
0.0763878428669812        0.11678068807263309      298.4946629493431
0.07182596633006248       0.1253190778022895       297.3559751618872
0.08588109522066888       0.12138967361785982      295.5494266151391
0.0792585875421726        0.12570192740951297      295.99950096126435
0.02594813449848343       0.04590431678446938      352.4549677969409
0.02                      0.04835790409524163      357.710544288065
0.032907609502353725      0.04677822230134224      347.80486962165946
0.02                      0.05701467850990266      366.62456194521945
0.027103972151246682      0.053160332556886805     360.499532266993
0.02                      0.06567155950330086      370.75035505302026
0.02633590258320584       0.06222722706771444      367.12146123673796
0.0345784186084781        0.053033256364384364     352.03554984728373
0.02                      0.07432844049669907      370.7513650699928
0.026487232713084802      0.07116459046976649      368.5344882899745
0.032880511388790126      0.05951344124940716      358.72862437515045
0.02                      0.08298532149009727      366.62443330459683
0.026604829698678095      0.07983359667013226      365.96041189781994
0.033033057602480265      0.06830133430115146      361.0073812338704
0.02                      0.09164209590475832      357.71034647339746
0.026614079329634093      0.08787536088153626      359.84260599886244
0.025755444465815826      0.09402045901632827      352.6717512376537
0.03323510328727975       0.07698392123939952      359.64969952307143
0.03328549970943534       0.08546114885248979      355.0561366168399
0.032578359403649275      0.0931309233631543       348.2960644536293
