% Model:              2-D_plane_model.mph
% Version:            COMSOL 5.4.0.225
% Date:               Dec 13 2018, 11:08
% Dimension:          2
% Nodes:              217
% Expressions:        1
% Description:        温度
% Length unit:        m
% X                       Y                        T (K)
0.005605542070014619      0.0056603803347431945    301.81945958683764
0                         0                        293.15
0.008888888888888875      0                        293.15
0                         0.007999999999999997     305.58013136770813
0.013152076278710428      0.007386315738551722     303.95416821287546
0.017777777777777767      0                        293.15
0.006291558795752165      0.012264638931893099     312.1296773686203
0                         0.015999999999999993     318.56753284647806
0.02238692948949691       0.006571861880429915     301.7482493621317
0.02666666666666666       0                        293.15
0.006465406969670517      0.019765539967736254     324.550104680718
0                         0.02399999999999999      332.7594481481207
0.031167311301998832      0.006621411235328782     300.56721496418305
0.035555555555555556      0                        293.15
0.006583266190284896      0.027372095758113044     338.467810887445
0                         0.03199999999999999      348.9993280140721
0.03988716652371499       0.006944418981097149     299.50000370679226
0.044444444444444446      0                        293.15
0.006146882746798208      0.03379109355806737      352.00615443557615
0                         0.04                     368.4405636296199
0.009999999999999998      0.04                     364.83750861068967
0.04869125605086825       0.007302899264544247     298.286513749551
0.05333333333333333       0                        293.15
0.057516741991061215      0.0071914946616880365    296.7241795724192
0.062222222222222213      0                        293.15
0.014016527637396829      0.03150860555623529      343.3380852427205
0.02                      0.04                     353.9660650664473
0.06627015138886985       0.006524557701977959     295.1052101353693
0.07111111111111111       0                        293.15
0.07384806340183832       0.005969192783146803     293.9463955406326
0.08                      0                        293.15
0.02                      0.048571428571428606     367.4969824103994
0.027846290120652335      0.04455217806196896      348.5796864178183
0.07999999999999999       0.009333333333333364     293.15
0.027548346969125868      0.052780762678859984     357.0779718356196
0.02                      0.057142857142857176     376.2908835785485
0.08                      0.018666666666666696     293.15
0.07175330691916199       0.014019963832389553     295.6421041186309
0.02749119055052134       0.06127332696026683      362.38651578025684
0.02                      0.06571428571428575      380.6150317800014
0.07267619907130439       0.02364244680417218      296.8115354715567
0.08                      0.02800000000000003      293.15
0.006209732589365084      0.11200068943009352      339.79312724758233
0                         0.11600000000000002      332.7590070879249
0                         0.10800000000000001      348.99912695806535
0                         0.1                      368.44009645856556
0.006138211004979278      0.1058811284878001       352.74798004732764
0.027467803232110132      0.06985218056012234      364.245850185097
0.02                      0.07428571428571432      380.61461386689376
0.07266010974777377       0.032674505485655266     298.0751585697972
0.08                      0.03733333333333336      293.15
0.0061423159724325474     0.11892937211957023      326.8822909606927
0                         0.12400000000000003      318.5685129139751
0.009999999999999998      0.1                      364.8373134049023
0.02744974733894766       0.07843815768333255      362.58806545770034
0.02                      0.08285714285714288      376.28960738153074
0.027450383258036157      0.086844549641733        357.5586894598792
0.02                      0.09142857142857146      367.49484106795234
0.07257634392273556       0.04186766850915763      299.2510748308198
0.08                      0.04666666666666669      293.15
0.007853586930918309      0.1269751801919123       313.1920974082929
0                         0.132                    305.57830336214806
0.005986808522620933      0.13456972675073015      301.45173535239445
0                         0.14                     293.15
0.02                      0.1                      353.96493164022746
0.01356971142597203       0.10813887197348933      344.30226209290737
0.02790310037192335       0.09501005714289332      348.979781329098
0.07249527814937184       0.05118271424714125      300.2117596206695
0.08                      0.05600000000000002      293.15
0.008888888888888887      0.14                     293.15
0.0724698170852903        0.060559151206445276     300.8116091586722
0.08                      0.06533333333333335      293.15
0.013191566793297466      0.1338734535617383       302.0935874776497
0.017777777777777774      0.14                     293.15
0.07245131504613037       0.06995067120296641      301.03066515268637
0.08                      0.07466666666666669      293.15
0.02208675707847502       0.13297114929140327      302.3909273970036
0.02666666666666666       0.14                     293.15
0.07243027624143317       0.0793303864598444       300.8569062888642
0.08                      0.08400000000000002      293.15
0.030986156461078128      0.13240625630606012      301.69205970697254
0.03555555555555555       0.14                     293.15
0.07234912530505652       0.08865129064457541      300.36404891386627
0.08                      0.09333333333333335      293.15
0.03911757084469692       0.1324912311501014       300.1554165178928
0.04444444444444443       0.14                     293.15
0.07224234279096417       0.09801095442812784      299.54196242957704
0.08                      0.10266666666666668      293.15
0.04804087711930426       0.13260271714927252      298.46721666405915
0.053333333333333316      0.14                     293.15
0.07229885663331458       0.10735788954036218      298.315005450897
0.08                      0.11200000000000002      293.15
0.05690946471222          0.1325884004389762       296.93668346566665
0.0622222222222222        0.14                     293.15
0.07268011320577969       0.11660626975213421      296.7733698258259
0.08000000000000002       0.12133333333333335      293.15
0.06613639826660499       0.1318128841944351       295.6251631098341
0.07111111111111108       0.14                     293.15
0.07314378306296027       0.1259233204213615       295.22790899278516
0.08                      0.13066666666666668      293.15
0.07407825848813528       0.13368057425649266      293.9611984250856
0.08                      0.14                     293.15
0.019534193629911697      0.013636541118194932     311.929129754021
0.012670721549130898      0.015940356013999176     317.0343712549666
0.01771272634293561       0.01942022776006127      320.98202732911204
0.023762014482517368      0.019333038365061894     318.42974693276295
0.027261035425537622      0.013210449102587422     309.2060243711027
0.012864710257361566      0.02317065169180003      328.808959701491
0.019731991795756514      0.025020551611250306     328.6988908591093
0.026871524006651683      0.025275538231722516     324.7610868104857
0.03117391463570002       0.019580291942037236     315.3244994636215
0.03554184901360091       0.013519550074471774     306.9508867430343
0.023149863469275476      0.03142227365338213      336.1928010681009
0.029550212134586078      0.030351479994574816     329.28079608083533
0.03385936030958426       0.025946276569008515     320.9185229072264
0.03934120301117044       0.020271903967394388     311.9759085838214
0.044181699864533824      0.014420626783169483     304.8333638413715
0.0287099504331357        0.03638545500008629      337.6076784029708
0.03515371721431804       0.032730469505012814     327.0477591563236
0.0410655908550793        0.02746797577330934      317.37603957811547
0.04827123956366771       0.022868596830714488     309.2991809927641
0.052849724452624         0.015002088729414042     302.1878665081942
0.061733764498449695      0.01431942227419197      298.8580951811555
0.035162660317494175      0.04026864292790008      334.4164081944166
0.04237484839909819       0.03569578172444021      323.0051374799611
0.047024841338752274      0.03043264255487936      315.2964851799294
0.05258054090079424       0.02916730199894755      310.51719137112093
0.05798288644302113       0.023395168969656325     304.3149760682256
0.06592462276395897       0.020728006236957343     299.411209099886
0.0349693634959144        0.0483921593581941       341.53839628929524
0.04176603479024092       0.044081863074135044     329.65403953317315
0.046259714335989854      0.040863730567536845     322.7050906665438
0.05132392676402153       0.03710024230656149      315.78764065398633
0.058299810394508544      0.03203985933292608      307.86679060532373
0.06547948786079263       0.028266368371507988     301.79954328581516
0.034983232763324705      0.05675262553400079      346.68916570080415
0.0425096160146484        0.05191688387229973      333.2047744613188
0.04983779756451644       0.045826899034768026     321.5347194792142
0.05787890742320994       0.04149475490310831      311.829923824074
0.06533646280334947       0.03712134724522379      304.24111792125836
0.03493736488831476       0.06535214844580367      349.59579384498966
0.04237788012516666       0.060604604832619334     336.6393079608815
0.049913932095598836      0.05576800605860719      325.1411564811579
0.05751815873513527       0.05092688829478925      315.0887655129423
0.06512651506917698       0.04638737270653187      306.48867895412326
0.011399670805243355      0.11505403241904344      332.43809720926134
0.034937241004678224      0.0740455679915715       349.69350182374484
0.04237127505530041       0.06958879513984534      337.8875529386814
0.04984867293281289       0.06498450492603702      327.0347470159818
0.05739790739332604       0.060354776029975715     317.1154406456483
0.06496459415575245       0.05574058740534661      308.17586091573435
0.01246330366039718       0.12025423484195882      323.2021702879875
0.018370980048622868      0.1159262609420523       327.9274501677333
0.02286246238132429       0.10810940017006297      337.1564067723571
0.034980726989398095      0.08259807932086707      346.99861358161826
0.03512125910319312       0.09089792994783644      341.8393571635584
0.04246867872204361       0.07842476223066204      336.7472711637511
0.04992593096462926       0.07415953112738555      327.0141554073371
0.05737591216578955       0.06970532599750895      317.815572226258
0.06492303291658046       0.06515951685431466      309.0388146778434
0.017455646042691363      0.12516410361301017      314.19868652912606
0.02361219020114297       0.12037853929130951      318.8900387257494
0.026448908714758496      0.11461985411074338      325.17055797627785
0.028965413378036025      0.10348519159654315      337.48794494214206
0.029654253584478096      0.10950402731340515      329.37113787748655
0.035597973978243734      0.09910400307210264      334.47599268965746
0.04250672737329078       0.08694231545809916      333.7417351986055
0.04248317502536562       0.09495623858426712      329.4259470158452
0.050101587576223724      0.08321720231653462      325.18633712020966
0.057447517078312395      0.07906315661708675      317.1361200032548
0.0648906744426579        0.07465787303715224      309.0824783602343
0.029270851670253575      0.11997683657946515      316.7732299253306
0.026442728729338727      0.126383082267611        309.9583387176289
0.03436819762938063       0.1152510314171838       319.2930339224577
0.035678040181000154      0.10712190023281014      326.7214734682771
0.04347931688248519       0.10316754166281417      322.8044282378242
0.04988493682352049       0.0915596803484277       322.61025139424396
0.04831705360146117       0.09806842748133578      321.20846379827066
0.05749736641344473       0.08859243177101359      315.2343187597921
0.06489394304553087       0.08404671825111573      308.27672850258585
0.03509697656110537       0.12412525949134473      309.54606136547005
0.0411627166118725        0.11932491420769446      311.40572812290947
0.04317244560124365       0.11209903486851083      316.2436150916025
0.050406838917590825      0.10296747436844318      316.56166136874464
0.04871016988601941       0.10785912336272077      315.11623607855586
0.05585788240048745       0.09790063234145577      313.91701962970865
0.06456108920015641       0.09337196027216765      307.0643161872403
0.04345487845607099       0.12572291428169724      304.9700985969221
0.04824403951695594       0.1191730989997552       307.9059170760234
0.050564638500991764      0.11279563419659734      310.72706882831955
0.05587037649983888       0.10762692020690232      309.7851957310768
0.06424303212335077       0.10273311725056977      305.1356327145472
0.052151197482339075      0.1254572781985419       302.1535042057922
0.05667392630458054       0.11700742401178472      304.8203439247527
0.06462764521534309       0.11213034671440296      302.20370078424634
0.05956830584095627       0.12566084563220886      299.5676771919033
0.06596792694837901       0.12144019653771365      298.7615014578715
0.00597016246570263       0.04615592164102952      381.21756912194303
0                         0.048571428571428585     387.3407043487921
0.012917492282392798      0.04690745152309827      376.57148865309324
0.00700831297734045       0.05334716074036051      392.0844605827837
0                         0.05714285714285717      399.0221113310724
0.006044864128553137      0.06245749301954339      401.0473376344189
0                         0.06571428571428575      404.6022741455234
0.006141715556627148      0.07128157737894505      403.0022297558002
0                         0.07428571428571434      404.6031452094039
0.014526478251313693      0.05337019818577095      383.44976418379906
0.006460054265710269      0.07983021237802503      399.28145575106174
0                         0.08285714285714293      399.0240507185038
0.012816765275830509      0.06025689278324817      392.2898635407332
0.006468533240415866      0.08809684746702247      390.52933926249835
0                         0.09142857142857151      387.3411480888001
0.005621707955927117      0.09415707451435017      380.7794623635919
0.012803089146169734      0.06851026352708112      395.4604474815557
0.01307927647911272       0.0770321288474823       393.4395923466412
0.013070799906169163      0.08542786265798545      386.9759640642988
0.012526840183752025      0.09318505934465492      376.8831544013315
