% Model:              2-D model without Neumann boundary.mph
% Version:            COMSOL 5.2.1.152
% Date:               Feb 27 2019, 18:15
% Dimension:          2
% Nodes:              218
% Expressions:        1
% Description:        温度
% Length unit:        m
% r                       z                        T (K)
0.02                      0                        273.15
0.028466225178970257      0                        273.15
0.025531304479688027      0.005382951920663119     277.8724064360992
0.02                      0.008                    280.3406564230121
0.03740717422612565       0                        273.15
0.03300238296654072       0.006944058383538907     278.84535570566237
0.02                      0.016                    288.10725187640577
0.02623675529648113       0.011970743295442662     283.84281348477003
0.04634900647953627       0                        273.15
0.04222984372461838       0.006681242309493672     277.8554391190318
0.02                      0.024000000000000004     297.14188292306835
0.026419742192930633      0.019684884692317377     291.58334058704355
0.05529083873294689       0                        273.15
0.05096023952370876       0.006794644691059691     277.067964273172
0.06423267098635752       0                        273.15
0.05959892024024902       0.0070275553261748055    276.3108151277433
0.02                      0.03200000000000001      308.39612879551623
0.026579274462479614      0.027373435489476093     300.72123726793683
0.07317450323976814       0                        273.15
0.06851169094152765       0.007201721319810249     275.5150399353601
0.08211633549317876       0                        273.15
0.07754735327966185       0.007251951040529932     274.73846784339315
0.02                      0.04                     323.25120315174024
0.026143345089436824      0.03388057831935191      310.4459178398085
0.029815132917010326      0.04                     319.724154671165
0.09105816774658938       0                        273.15
0.08619158532316694       0.006442294353334747     273.96802528617394
0.1                       0                        273.15
0.09381570677583313       0.005889532667657809     273.46981695490905
0.04                      0.04                     309.80753685807025
0.034021334406869705      0.031577136714635995     303.4047647959173
0.1                       0.00913448514434536      273.15
0.04                      0.04857142857142853      319.20698682092547
0.04765731612162651       0.04467738449239267      304.7842764306328
0.1                       0.01849833818115786      273.15
0.0918287808094094        0.013870883840608937     274.151442168031
0.04                      0.057142857142857106     325.10005155453723
0.0473852553648085        0.052991534161061206     310.166227152673
0.1                       0.027862276693674592     273.15
0.0925429000924655        0.023599799850356578     274.67659469106223
0.04                      0.0657142857142857       327.9383476527566
0.04733607423861993       0.06142647144360406      313.4045047377101
0.1                       0.03722621520619133      273.15
0.09242862560993231       0.032624060405982425     275.24288253788853
0.04                      0.07428571428571427      327.9382353682827
0.04729604663725687       0.06992909960537234      314.54804690190826
0.02                      0.10800000000000001      308.39652758666807
0.02                      0.1                      323.25014552489324
0.02589526454165581       0.1060273923693183       310.6798783808149
0.02                      0.11600000000000002      297.1419682045648
0.026448341977635386      0.11242981080229009      301.0140178821814
0.1                       0.04659015371870806      273.15
0.09227134310588074       0.04190277432449405      275.78760908329895
0.04                      0.08285714285714287      325.09922278044286
0.047261920614307514      0.07843484209928403      313.5560769333719
0.02981513291701033       0.1                      319.7220115627187
0.04000000000000001       0.09142857142857143      319.2053920445511
0.04728002873512781       0.08682449602901204      310.40925473016847
0.02                      0.12400000000000003      288.1073338154605
0.026347937325347178      0.12005977210754436      291.8710269899797
0.1                       0.05595409223122479      273.15
0.09222127121754822       0.05126311875593795      276.2040937494716
0.04                      0.1                      309.8056068050652
0.033719493589874305      0.10797971786253363      304.16201469318315
0.04761652546742417       0.09505553335881994      305.01893616003423
0.02                      0.132                    280.3407083694137
0.026274009746413238      0.12780281203846258      284.05395898520425
0.02                      0.14                     273.15
0.02552647077256105       0.13443501055351353      278.03442256618206
0.1                       0.06531803074374153      273.15
0.09226806328722877       0.06062562855950456      276.4386980084517
0.02846622517897028       0.14                     273.15
0.1                       0.07468196925625825      273.15
0.09230665154095374       0.06995380652417048      276.5086249439962
0.03740717422612561       0.14                     273.15
0.03316088544720524       0.1326113750517373       279.2043319033659
0.1                       0.08404590776877499      273.15
0.09230338695249163       0.07928837711858307      276.4245062252135
0.04634900647953623       0.14                     273.15
0.042489677281501645      0.13309895213574943      277.98704342024456
0.1                       0.09340984628129172      273.15
0.09221612026755437       0.08862184795383075      276.21028203359293
0.05529083873294684       0.14                     273.15
0.05099127034729223       0.13309491952451746      277.12895811339325
0.1                       0.10277378479380846      273.15
0.09212224419236452       0.09798704430010143      275.8465547665459
0.06423267098635746       0.14                     273.15
0.05953225773087313       0.13295153619078848      276.32693840398775
0.1                       0.11213772330632518      273.15
0.0922207939686331        0.10736998121765742      275.3034884400317
0.07317450323976807       0.14                     273.15
0.06818721233047688       0.13280066368371687      275.5444760078642
0.1                       0.12150166181884191      273.15
0.09266868069432          0.11667059125017347      274.63333301434756
0.08211633549317868       0.14                     273.15
0.07673786312955425       0.1326134536515025       274.836022444486
0.1                       0.13086551485565462      273.15
0.09328265035029558       0.1258116917819782       273.9845799388186
0.0910581677465893        0.14                     273.15
0.08607119597878404       0.131806535387045        274.1995506341204
0.1                       0.14                     273.15
0.09408240281513378       0.13369674840493556      273.4768747570476
0.03934293675601625       0.013572068383360716     283.452722439996
0.0324671021397274        0.015812564776136556     286.68530535798413
0.047079120778936064      0.013364163926743583     281.7454346982707
0.03764324013191981       0.019392869938046134     288.7860110168886
0.0436359307943551        0.01923751096620543      286.8509027080263
0.03280627069769545       0.023146580766105707     293.9188452643219
0.05521370718596597       0.013694906583946086     280.24130055757456
0.05091904133126097       0.019841077953521125     284.9238435918794
0.03970693085224551       0.025038592986022068     293.2748607769934
0.0468153938683845        0.025462777784145844     290.41211427578895
0.06385452605080358       0.014295734003705896     278.74779249131524
0.05888270936761766       0.020840375681512705     282.87869406277076
0.05373827941953266       0.02645513934984114      287.8610585796742
0.04309351522268157       0.03160362358884856      297.6917661791633
0.049516922573251396      0.030711696436335176     292.85880739018734
0.07286013393334129       0.014684341410816669     277.16982822356925
0.0815828220595958        0.014052430683443997     275.5957843830159
0.06804522084875536       0.022549360554376504     280.69886093210454
0.061308286628028674      0.028413106237358435     285.4294127068915
0.054987322748652735      0.03346180200617354      291.25654122421423
0.048490930419756606      0.03683582314277659      298.11435215736225
0.08579786672987164       0.02055873342741921      275.81047802880335
0.0777535284493042        0.022965020165779407     278.07713257077563
0.07292745252671011       0.027478638790856623     280.5811845892731
0.06879238056348923       0.031153865076326274     283.1987823442198
0.06264834723854651       0.03618403403270308      287.97400810947624
0.05532077143363064       0.040786739497460284     295.0055970460997
0.08520212740557967       0.028184506553296424     276.9114356513535
0.07686965779121813       0.03185709493366708      280.1958839716977
0.07036262160833903       0.03659521339324671      284.05820021847586
0.06779803192553616       0.04180454417443096      286.84984762671985
0.05474693951156328       0.048878781581629414     299.37900223901903
0.06171577368999033       0.04489549201101163      291.8175750785845
0.0846611505483893        0.03713152180228325      278.16314656597956
0.0757046905229052        0.04197652874910614      282.670365778032
0.06933428657277435       0.04856834589695873      287.5554558600747
0.054714313971485816      0.057183700641362474     302.32751568792764
0.06202856303906409       0.05291084317566247      293.96871050074145
0.0843190220717816        0.04658875312449788      279.2916391105687
0.07663710675743113       0.05141776999917481      283.6499265036858
0.06955903694873118       0.056667481701135905     288.82118710292565
0.054704185832844886      0.06562803719886862      303.88954873792363
0.062101027539839544      0.06127125722187667      295.51470781246456
0.08450376020807238       0.055986286127936324     279.922166920528
0.07698630056619014       0.06076916256736376      284.34575667267103
0.05469928903964321       0.07412983100752459      303.91766738741995
0.0695052612380926        0.06540460377391871      289.6833654760771
0.062097121875558964      0.06983351953183277      296.101483590016
0.03272130713729166       0.11652103566132395      294.30313923881255
0.0846322076990671        0.06528499221231654      280.22622238112604
0.07708146306427402       0.06985427484255846      284.58839757105176
0.05469268742919408       0.08255388113272948      302.42269067814294
0.062170667138527876      0.07840807569926803      295.49200880667405
0.0696286467540823        0.07423187474490463      289.60750066253814
0.05482301925851638       0.09078225294170866      299.4450864343948
0.042997751120096454      0.10815867246561961      297.9828165249764
0.039565036089927855      0.11457923663522916      293.70195015353005
0.03762647437288618       0.12021014686779749      289.14982983804504
0.03260160824282273       0.12387404708299397      286.9539401823021
0.08468435442077508       0.07453591919857148      280.20254956265177
0.07715714104070012       0.07894191721654499      284.2605618936736
0.062164604493921416      0.08675650313271976      293.93500599327234
0.06976022616734015       0.08294885740530482      288.73009592132786
0.06214423318139806       0.09468281964949488      291.64369698335946
0.0552860431793217        0.09880152920607177      295.24560141996017
0.04846817392170403       0.10295327105215618      298.2935848251637
0.049422921140335634      0.10918245022178963      292.9914293036999
0.04675556846447436       0.11432360601541544      290.60259660840717
0.04356646331740146       0.1202833271704256       287.2460098163552
0.03947298615614953       0.126048193958078        283.7314244632184
0.08463317536874679       0.08389462400632228      279.86508444942405
0.07716032051171397       0.08818773752643513      283.40742851157984
0.06939679378855189       0.09116313196781282      287.5712440870779
0.06805720533778015       0.09777014826065078      286.81444131641365
0.0631769085206738        0.10281362586786012      288.05309568065144
0.05549308208956815       0.10652068620884464      290.95513810119206
0.0540407342953684        0.11353566826029403      287.72790069608624
0.05096236791913858       0.12005414174841096      284.9754622685726
0.047016346901832255      0.12648463779762248      281.8594739683476
0.08428485679283564       0.09316900236286935      279.3293631087167
0.07550505108014212       0.09755415059224189      282.8540984525739
0.07006304011813483       0.10263701322584415      284.41113498272716
0.06838562268146606       0.10752632307164388      283.78318836934346
0.062815109039104         0.11175273999395043      284.70386764849746
0.059059520541921935      0.11941938858687225      282.6981040517844
0.05516378083733026       0.1263134395578143       280.2472117329685
0.08401169412516396       0.10257780319115084      278.4371763362241
0.0755709713886598        0.10736721705225202      280.84744699391337
0.07018853950491245       0.11246704933686422      281.55686889026754
0.0677831515483512        0.1189082784938418       280.28770461913626
0.06359197961223917       0.1259520634669221       278.7013449222373
0.08445571904777587       0.11202691605535446      277.0953479532224
0.0763878428669812        0.11678068807263309      278.4946629493431
0.07182596633006248       0.1253190778022895       277.3559751618873
0.08588109522066888       0.12138967361785982      275.5494266151391
0.0792585875421726        0.12570192740951297      275.99950096126435
0.02594813449848343       0.04590431678446938      332.45496779694093
0.02                      0.04835790409524163      337.7105442880651
0.032907609502353725      0.04677822230134224      327.8048696216595
0.02                      0.05701467850990266      346.62456194521945
0.027103972151246682      0.053160332556886805     340.49953226699307
0.02                      0.06567155950330086      350.7503550530203
0.02633590258320584       0.06222722706771444      347.12146123673796
0.0345784186084781        0.053033256364384364     332.03554984728373
0.02                      0.07432844049669907      350.7513650699929
0.026487232713084802      0.07116459046976649      348.5344882899746
0.032880511388790126      0.05951344124940716      338.72862437515045
0.02                      0.08298532149009727      346.624433304597
0.026604829698678095      0.07983359667013226      345.96041189782
0.033033057602480265      0.06830133430115146      341.0073812338705
0.02                      0.09164209590475832      337.71034647339746
0.026614079329634093      0.08787536088153626      339.84260599886244
0.025755444465815826      0.09402045901632827      332.6717512376538
0.03323510328727975       0.07698392123939952      339.64969952307143
0.03328549970943534       0.08546114885248979      335.05613661684
0.032578359403649275      0.0931309233631543       328.2960644536294
