% Model:              2-D steady-state model.mph
% Version:            COMSOL 5.2.1.152
% Date:               Feb 27 2019, 17:30
% Dimension:          2
% Nodes:              208
% Expressions:        1
% Description:        温度
% Length unit:        m
% r                       z                        T (K)
0.02                      0.008                    286.3348824086439
0.02                      0                        273.15
0.025497223459392305      0.005490331377192716     281.93505559630427
0.028466225178970257      0                        273.15
0.02                      0.016                    300.8693117707105
0.026306889230874153      0.012136694322603734     292.9914730010136
0.03740717422612565       0                        273.15
0.03293456006876181       0.007058399805460785     283.5594834318917
0.02                      0.024000000000000004     318.6511233534586
0.02653980453619809       0.020070112593695382     308.000381679139
0.04634900647953627       0                        273.15
0.04197276668417323       0.006734038117965437     281.49666800193967
0.05529083873294689       0                        273.15
0.050694683978215936      0.007073377107744812     280.1810329464568
0.06423267098635752       0                        273.15
0.059610661137169306      0.007227251775641314     278.6157140387832
0.02                      0.03200000000000001      343.4983397990206
0.02681858859367116       0.02795911583038374      326.5817565897191
0.07317450323976814       0                        273.15
0.06861698637459829       0.0072811753820988395    277.10780359400684
0.08211633549317876       0                        273.15
0.07764541936647346       0.007240503385123538     275.75310417819327
0.02                      0.04                     395.956459296887
0.02697375585169527       0.03608613748247246      352.3462568930973
0.09105816774658938       0                        273.15
0.0861785348393811        0.006523799117734413     274.5126028965531
0.1                       0                        273.15
0.09385284105724873       0.005902680590224744     273.672483784753
0.02                      0.04835790409524163      447.929804198169
0.027039843543329972      0.044357888495478254     383.8476526323158
0.1                       0.00913448514434536      273.15
0.02                      0.05701467850990266      468.4638588411232
0.027082935537107902      0.05281737355943255      406.38337652009835
0.1                       0.01849833818115786      273.15
0.09187662614099759       0.013923838796122703     274.78608774062917
0.02                      0.06567155950330086      477.1519519487524
0.027123993479595015      0.06147512774881472      418.39573704912453
0.1                       0.027862276693674592     273.15
0.09259052466190965       0.023674948930308273     275.6308394899147
0.02                      0.07432844049669907      477.15183693841567
0.027165072559196205      0.07014835374714869      421.8497118891942
0.02                      0.08298532149009727      468.46423384073023
0.027199923243248558      0.07884200171110868      417.6284831675295
0.1                       0.03722621520619133      273.15
0.09252789106741723       0.03272826865746737      276.5110815211515
0.02                      0.09164209590475832      447.92526895729196
0.02720135540356332       0.08753405629033711      404.9629398346537
0.02                      0.1                      395.9908496089043
0.02706298026651673       0.09608943611403016      382.1779641719608
0.02                      0.10800000000000001      343.5068890701762
0.026716055719268147      0.10428454640331963      351.4966242771432
0.02                      0.11600000000000002      318.6557017407104
0.0263491778125052        0.11212955339400493      326.71315975401654
0.1                       0.04659015371870806      273.15
0.09243968083243365       0.04196968492384807      277.32084505092826
0.02                      0.12400000000000003      300.8712550915611
0.026157751358668         0.11981186833598083      308.39231610022756
0.1                       0.05595409223122479      273.15
0.09242780745103905       0.05126001180009734      277.93047824313106
0.02                      0.132                    286.33592522610087
0.026171251084930375      0.12770574089550776      293.2936183644699
0.02                      0.14                     273.15
0.025519432175154493      0.13446944775727948      281.9991086443219
0.1                       0.06531803074374153      273.15
0.09242518638510322       0.0605864477126901       278.3188029945282
0.02846622517897028       0.14                     273.15
0.1                       0.07468196925625825      273.15
0.09244161067774827       0.0699273780010891       278.44124227634757
0.03740717422612561       0.14                     273.15
0.033113877215166926      0.13275308739192498      283.8135903423509
0.1                       0.08404590776877499      273.15
0.09248124293797871       0.07923538639348635      278.2836096546375
0.04634900647953623       0.14                     273.15
0.04279216935179331       0.1328207178877966       281.8896356983444
0.1                       0.09340984628129172      273.15
0.09249264228955514       0.08863051422705384      277.89340863407807
0.05529083873294684       0.14                     273.15
0.051096082789190124      0.13278116959336497      280.24580135832497
0.1                       0.10277378479380846      273.15
0.09251485795217987       0.0980422897801051       277.27653684920307
0.06423267098635746       0.14                     273.15
0.05965481735487958       0.13254548188620713      278.7794997227775
0.1                       0.11213772330632518      273.15
0.09258004843205066       0.1074240498275454       276.4730011265383
0.07317450323976807       0.14                     273.15
0.06833540678601635       0.13258603467084018      277.2257889812347
0.1                       0.12150166181884191      273.15
0.0928335253308669        0.11676825495392708      275.50361829357917
0.08211633549317868       0.14                     273.15
0.07691126908122552       0.1325088663656495       275.9473441006102
0.1                       0.13086551485565462      273.15
0.09334042689190883       0.12581831787042808      274.50350406485194
0.0910581677465893        0.14                     273.15
0.08611536929318195       0.13159989690574908      274.9111600568404
0.1                       0.14                     273.15
0.09410389936655146       0.13365557106278955      273.68753417188384
0.03286974732089269       0.016201322159273526     298.0616335131803
0.03914017993970065       0.013033548416450965     290.62512119270355
0.03354911939156565       0.02388211849884272      311.56126455882355
0.04607907077467666       0.013928722830295235     289.00530512787185
0.04028278023485379       0.019551066661269673     299.4014528029971
0.054866381268039326      0.01455375664456273      286.0267193017025
0.06398314424784406       0.014572272084533487     282.60866668098635
0.033932012941188076      0.031991357428871395     328.17880731677093
0.041095659271052694      0.02769493599966509      311.0691979006197
0.04943362846072004       0.02272494887209099      297.1706062806467
0.07302083648183832       0.014706510902276843     279.746443399541
0.08192278884132237       0.014298206790299384     277.15096511051337
0.05935217695475332       0.021870708855770214     289.9006312307397
0.06835011313598743       0.0218624530825481       285.07109495104663
0.03405328499297536       0.04027401263609955      347.3224946978321
0.04110065637052041       0.03608761797903777      324.49341957835446
0.0482757582274682        0.03193250655787799      308.77529652688605
0.056079916251567906      0.029618209645049326     298.5548594747808
0.08587926632510674       0.020645541957790614     277.49137045555483
0.07760656692480436       0.022984454689057715     281.29089638250304
0.06411567567409752       0.029521259652720094     292.02195693055614
0.07128948092947132       0.02872864716802507      286.80842840765206
0.034128531771812916      0.048711562581836794     365.000702268078
0.04114296620296184       0.044492249233404814     337.41948705599907
0.04810372374055285       0.040160322916509984     318.4511067283027
0.053801902269221574      0.036077871628256944     306.5536376660518
0.06053557720047898       0.036469782138668465     299.536975583352
0.0851852462629724        0.02829321487055891      279.30741409253864
0.07756176111496497       0.032395890316907504     284.37851565921346
0.06942954203882903       0.03713993067677096      291.8592866738748
0.034205247764930474      0.05731929066940472      377.1560164656728
0.041244531676385136      0.05311646157223149      347.8733816202589
0.0482260156018988        0.04863934995873844      326.742366695074
0.05607504377124622       0.04373234214174395      309.7939465850538
0.06371138319791164       0.042729079087469535     299.88921488363354
0.08500244784564957       0.037280773140671554     281.0998027026429
0.07740671024677898       0.04175498707055886      287.17209103584963
0.0700859999913826        0.046264583825772        294.8266646749148
0.034286990319428105      0.06602116056440892      382.80987111698005
0.04136189478481612       0.06190857712732958      354.2167717103035
0.04840164176336343       0.05768032516668892      332.86913916203065
0.055480395391671856      0.05305084253227022      316.4729174497052
0.0624495447850541        0.0500218212825016       304.81729394898906
0.08493458122913206       0.04649829475001586      282.6064974605583
0.07747673685513116       0.05089559985620218      289.1983136075127
0.07006956785033235       0.05501229612776579      297.3497518534898
0.03437434964469103       0.07474050447012044      382.14867368081553
0.041487795595311475      0.07069661003157941      355.8032837573369
0.048546569074202704      0.06670091621909786      335.6470124962002
0.05555044405120597       0.06266580359046593      319.99945414101427
0.06276936934252095       0.05878789225613096      307.3828436406781
0.03446016883174078       0.08347613661412467      375.2095611334626
0.08493723219205734       0.055732513559656444     283.6687818851652
0.07751325693383271       0.0600019349495651       290.52375236865214
0.07016864228290218       0.06403702910121194      298.71137104708305
0.041642978391211484      0.07937985395006016      352.6447399967871
0.04871861311931903       0.0755223771793171       334.7961347479076
0.055767882551897206      0.07174916498331528      320.4081469740761
0.06291372347904321       0.06791767726921276      308.54685428283034
0.03450148769049247       0.09229094674571768      361.8044879656066
0.041840875279965106      0.08815701862235764      344.8680677840287
0.03398766976849268       0.10086815576871762      344.80782968649646
0.03293181682336907       0.10867605066904429      328.1036048665829
0.032291562774220156      0.11600792742590459      312.7765897470903
0.08496136412986983       0.0649873598496876       284.2195669928996
0.07756222322773217       0.06920265409155979      291.00246741613597
0.07023868906559382       0.07321672942039319      298.8288785547513
0.04897620169669057       0.0840131746556229       330.6155454651809
0.05590673379255715       0.0806168877446811       318.4243401040663
0.06299856818887258       0.07703309392236997      307.91153143482484
0.04900411693236778       0.09208881277704194      324.58045491627985
0.042460298137287536      0.09769318699157857      331.40041529540036
0.049807572155376935      0.09873877694245066      316.91016611019586
0.04026306605604257       0.10620730615136277      322.0428190817369
0.03895659600137583       0.11337486571484692      311.56470621654717
0.03726811853787068       0.11937283941235492      303.03436232425764
0.03223644576059285       0.12320004188786138      299.36063501936843
0.08498079571183315       0.07432103699506022      284.22440322338167
0.07758892687342128       0.07850719190232051      290.59649140411284
0.07023975493305769       0.0825336446881888       297.6796239070641
0.05607456457690655       0.08920065268505314      314.29121341482283
0.06292462531108631       0.08616445942842868      305.67889071830604
0.055280874400656266      0.09646811706227773      310.750579607361
0.0475076238570082        0.10466582500125476      313.7720553579234
0.05319430637279004       0.10210247225391036      308.9339333979788
0.046037099987673004      0.1119548286146112       306.4285873614643
0.04339552881680605       0.11911320425206563      299.2124469363489
0.039358796346267204      0.12545237867793665      292.6727896079082
0.08500794612965264       0.08365607064734808      283.6668073274198
0.0775522754943092        0.08797447525318038      289.3422273445017
0.0701466992737964        0.0922895678610507       295.24442485940784
0.06215038247902436       0.09490099780663484      302.86606946158753
0.05967222231361704       0.1027786292339395       300.9251799712394
0.05432832888386651       0.10960443333082394      300.84197619386214
0.0510487394884134        0.11805341373461778      295.20437558138605
0.04719822341524784       0.1255061192246498       289.18343791272736
0.084984115273031         0.0931143758164006       282.62508348149845
0.07735855868054498       0.09771514903102518      287.346982246924
0.06880330899808357       0.1025045605690593       292.53406755674854
0.06346697437764288       0.1101717278132615       292.69303915136584
0.059371335789921036      0.11750413666417245      290.3679476166772
0.0553599120914415        0.12524549595507287      286.005442175318
0.08498937873665434       0.10260264922641109      281.12819673281814
0.07737764318848382       0.10717219691554077      284.6240718602587
0.07082417805333692       0.11099835313338101      287.21780143359985
0.06780247013959745       0.11764025370173126      285.61196552695293
0.06379027371099698       0.1250826546274251       282.90147878552347
0.08512095105093342       0.11211516709541015      279.25541279632813
0.07709429073227299       0.11697088641076825      281.52859963343604
0.07223916322841809       0.12505693225357625      280.0919652752754
0.08595972561030849       0.12161260980501185      277.0083399541358
0.07952790509690677       0.12563816076955503      277.7852143594998
