% Model:              3-D_rect_model.mph
% Version:            COMSOL 5.2.1.152
% Date:               Mar 1 2019, 17:05
% Dimension:          3
% Nodes:              9149
% Expressions:        1
% Description:        温度
% Length unit:        m
% x                       y                        z                        T (K)
0                         0.11111111111111106      0                        284.2611111111111
0                         0.1666666666666667       0                        289.8166666666668
0                         0.14228250476198032      0.04641915457059184      287.37825047619805
0.04592748856532332       0.1378827996179175       0                        286.9382799617919
0                         0.22222222222222213      0                        295.3722222222223
0                         0.19558354239044115      0.04570574172927827      292.70835423904424
0.047799791036657664      0.1944444444444444       0                        292.59444444444466
0.03825856867147593       0.16259231640278612      0.036699567427675446     289.40923164027873
0.06885870764900538       0.13851569151775053      0.02706241602481025      287.001569151775
0                         0.08321036441306301      0.04990901286963485      281.47103644130635
0.024754900263390896      0.10700858925504828      0.05247598199311233      283.8508589255049
0.03754130228424352       0.13256244677522974      0.04430044774232451      286.406244677523
0.03974510125491548       0.0835440167252305       0                        281.50440167252316
0.055311116239247074      0.11101475340866587      0.03823782768240359      284.25147534086676
0.027554548634648908      0.1504414686454738       0.07147075915422603      288.1941468645474
0.03618058400146441       0.0665758032886556       0.03373643865126647      279.80758032886564
0                         0.05555555555555553      0                        278.7055555555555
0                         0.035136160520409306     0.038437467446377695     276.663616052041
0.03513920746213074       0.03843749104252289      0                        276.9937491042523
0                         0                        0                        273.15
0.038437472880922315      0                        0.03513742166148852      273.15000000000003
0.05555555555555558       0                        0                        273.15000000000003
0                         0                        0.05555555555555558      273.15000000000003
0                         0.039719308107653006     0.08353264179981743      277.12193081076526
0.032616066748013324      0.049607589852080705     0.06747287730253294      278.11075898520807
0.08330864426007167       0.049892292051648114     0                        278.1392292051648
0.0867813310337069        0.08567443144859628      0.038399287815291235     281.71744314485954
0.033151829793825145      0.23515761189558956      0.039838063161111444     296.66576118955913
0                         0.2499999999999999       0.04779979103665774      298.15000000000015
0                         0.2777777777777777       0                        300.927777777778
0.04779979103665774       0.2499999999999999       0                        298.1500000000002
0                         0.12725887454422025      0.08777611154318009      285.875887454422
0.08807733178662823       0.11204419158619527      0                        284.35441915861963
0.12716702500293997       0.08776241196232111      0                        281.9262411962322
0.0972980212720447        0.05866786952198101      0.030021403538934906     279.01678695219823
0.10833052857138717       0.11185299130068421      0.025385462825334056     284.33529913006834
0.09233043800596619       0.16583615631763907      0                        289.7336156317641
0.08467681881570595       0.1793476778373459       0.03384728376711205      291.08476778373466
0                         0.1710149211145687       0.08986261727990531      290.251492111457
0                         0.3333333333333332       0                        306.48333333333363
0                         0.30555555555555547      0.04779979103665774      303.7055555555558
0.03258391016481988       0.3010840150940068       0.04105519075413867      303.25840150940087
0.042371086738587145      0.19835379121433816      0.05881833488128098      292.9853791214338
0                         0.2255989791201122       0.09125423061628972      295.7098979120113
0.026021479164204837      0.2704859429210618       0.07041007214272028      300.19859429210646
0                         0.276025911532951        0.09234423846767563      300.7525911532953
0.06630365958765023       0.22031522379117924      0.03187633528556511      295.1815223791181
0.09211285105967931       0.21991225670287023      0                        295.1412256702871
0.04644520885418423       0.30251226388125496      0                        303.40122638812585
0.052042958328409675      0.2649459743091727       0.04847590581776491      299.64459743091743
0.0651678203296397        0.29661247463245805      0.03431059047161961      302.81124746324616
0.04594439437248212       0.35477162301004006      0                        308.6271623010044
0.06564660402924134       0.3333251280583574       0.0349214657740008       306.4825128058363
0                         0.3888888888888889       0                        312.0388888888893
0                         0.3602140825296289       0.04621593461081851      309.1714082529633
0.04148666773577376       0.32039746159248184      0.06064474117600306      305.18974615924867
0.0557537207948995        0.3731596208467843       0.032123121488315816     310.4659620846788
0                         0.4144470246155548       0.039186639004106426     314.59470246155604
0                         0.4444444444444445       0                        317.59444444444495
0                         0.46031064615834527      0.035410018957005324     319.18106461583506
0.02240985667471507       0.4461420118336932       0.026012422986796298     317.76420118336983
0                         0.5                      0                        323.15000000000055
0                         0.08844720709223665      0.11230925452540028      281.9947207092237
0.04507342850807184       0.08700148765147843      0.06200861061293296      281.85014876514794
0.030388461648688588      0.17367953072552028      0.1102336239355399       290.5179530725521
0.05307004666118244       0.11302276118342422      0.08338320849417265      284.45227611834247
0.03829266852530245       0.12966399358355388      0.12584624487254306      286.1163993583556
0                         0.3318464097645028       0.09246215921943943      306.3346409764507
0.09210707712032275       0.2716839275285242       0                        300.3183927528526
0.08901781956220113       0.2713375465349373       0.03309346287859239      300.28375465349393
0                         0.04565943884198866      0.1379578836867698       277.71594388419896
0                         0.09254833088079538      0.1676397441832642       282.4048330880796
0.03973682746990565       0.06613665552851351      0.16308685260947356      279.76366555285136
0.0547021395489133        0.029747935798254195     0.055293846819494855     276.1247935798255
0.11111111111111113       0                        0                        273.15000000000003
0.09741005138202899       0.033721723496156965     0.04988210565698216      276.52217234961574
0.08353270448004012       0                        0.0397214042360946       273.15000000000003
0.0471556227319815        0.06909945114136869      0.10282622561049695      280.05994511413695
0                         0                        0.11111111111111113      273.15000000000003
0.04671985823802783       0.03454972557068434      0.1226000116066667       276.6049725570684
0.04990681832267775       0                        0.08321174000599392      273.15000000000003
0.1421926922948856        0.046373444713248446     0                        277.78734447132496
0.13963654930772554       0.03683518249357196      0.03774698170394165      276.8335182493573
0.14739749570833596       0.07083681550570249      0.03591937446256022      280.2336815505704
0.16666666666666669       0                        0                        273.15000000000003
0.1379592621268283        0                        0.045655789020876865     273.15000000000003
0                         0                        0.16666666666666669      273.15000000000003
0.04628409374407418       0                        0.1423737976028364       273.15000000000003
0.0424037640693214        0.23589249112901314      0.07750345059370996      296.73924911290146
0                         0.14272263697197057      0.13934404594970232      287.42226369719714
0.1708686293845112        0.08985593022648264      0                        282.13559302264827
0.1551584421089464        0.10483844851783305      0.0340917672211788       283.6338448517835
0.14078992679595856       0.13679112023719942      0                        286.82911202372
0.13117188669535643       0.15052101573372342      0.03384728376711205      288.20210157337254
0.1782584348172035        0.176156574067299        0                        290.7656574067301
0.13779384652165427       0.1933151876306455       0                        292.4815187630647
0.12221033552210245       0.1842114018221297       0.032402886197343        291.57114018221307
0.11324878434884847       0.217901787910536        0.030958488627573895     294.94017879105377
0                         0.20160416856380672      0.1427319083323777       293.31041685638075
0.023929110215119127      0.16776094364130242      0.15044312375784577      289.92609436413034
0.03709568551484483       0.34676993437237896      0.08228561134118374      307.8269934372383
0.04315319054260192       0.35909437950053275      0.059036272488251176     309.0594379500536
0                         0.3859175157178214       0.08713317688965404      311.7417515717826
0.030423883051998342      0.29807776756774457      0.10059001867348896      302.95777675677465
0                         0.30407264326284017      0.13624063057521796      303.5572643262843
0.028143062810080784      0.26489406542193633      0.12019766515008026      299.63940654219374
0                         0.24989618222552715      0.14344351866463065      298.139618222553
0.038753989578481425      0.2231435289337081       0.10937978587927502      295.4643528933711
0.14092810945088252       0.2459392337369191       0                        297.74392337369216
0.11286781879476263       0.24606261843741659      0.03187633528556511      297.756261843742
0.09122539489326442       0.3282479222711591       0                        305.97479222711627
0.08801775714372966       0.3704944908574925       0                        310.1994490857496
0.05120264420672029       0.4149431223575676       0                        314.6443122357571
0.04204701465125034       0.46375717251059895      0                        319.5257172510604
0.19841981189424174       0.13809002686035682      0                        286.9590026860359
0.13941521904863607       0.2952914650815109       0                        302.6791465081514
0.11119427726009182       0.31526541635545957      0.036744845657674115     304.67654163554636
0.10186365574894032       0.3782046664487271       0.03703010215060854      310.9704666448731
0.0327047032939159        0.37314240715227603      0.10392648150636444      310.46424071522785
0.034900194404380365      0.34409118694835067      0.11575161521581803      307.5591186948354
0.044819713349430086      0.3977912974085837       0.057427803800499236     312.92912974085897
0.07813310940560315       0.4036202285574197       0.02871390190024959      313.51202285574243
0                         0.4112133101242992       0.12740732837385607      314.2713310124303
0.044819713349430086      0.42063001848974035      0.08132302610902466      315.21300184897433
0.044819713349430086      0.4478395792229419       0.05202484597359265      317.9339579222949
0.07939798823290152       0.4461255271825951       0.043172341234341334     317.76255271826
0                         0.44876096781719627      0.08401019185101774      318.0260967817202
0.02240985667471507       0.47391978961147097      0.053790200764574095     320.5419789611478
0.05555555555555548       0.5                      0                        323.15000000000055
0.04197948987361571       0.5                      0.03641543714461548      323.1500000000005
0.06480450971333952       0.47391978961147097      0.04633415999809621      320.5419789611477
0                         0.5                      0.05555555555555558      323.15000000000055
0.058161082260255306      0.09137100286182533      0.13771764820242868      282.28710028618275
0.04281360601378748       0.03306832776425676      0.17932276452863408      276.45683277642553
0                         0.04779979103665781      0.19444444444444453      277.9299791036657
0.05265692333392709       0.13671624578526437      0.16531837970721383      286.8216245785264
0                         0.13824585674067938      0.19524762434597942      286.97458567406795
0.03558678301678498       0.10884790854657131      0.19252768544325888      284.0347908546573
0                         0.09130660329000183      0.22289212013332715      282.28066032900017
0                         0.36169824740215256      0.14184200898664656      309.3198247402156
0.136365402078423         0.2966652585091042       0.03725590490245429      302.8165258509107
0.04968218829422057       0.0791275403025773       0.22285788229951076      281.0627540302576
0.11231305584983886       0                        0.08845437726226806      273.15000000000003
0.13708040632056542       0.02729692027389547      0.07549396340788335      275.8796920273895
0.09104249465500781       0.04626973172037436      0.09747737153252581      277.77697317203734
0.0794736549398113        0.03972498017623161      0.15853396103568287      277.12249801762306
0.08777374384605267       0                        0.1272601755308275       273.15000000000003
0.11198764718017765       0.02729692027389547      0.11629615666285867      275.87969202738964
0.1758935537582267        0.037695511194059735     0.05823614619357444      276.9195511194059
0.1958973341742396        0.04718414932526624      0                        277.86841493252666
0.17338109157136897       0.06377572071027117      0.02911807309678722      279.527572071027
0.22398877049704122       0.09158441323534282      0                        282.3084413235343
0.20813570742714727       0.05271336533037825      0.03482521758337898      278.42133653303785
0.19444444444444448       0                        0.04779979103665774      273.15000000000003
0.2222222222222223        0                        0                        273.15000000000003
0.16765345512942262       0                        0.09253565477241978      273.15
0                         0                        0.2222222222222223       273.15000000000003
0.04589038455766925       0                        0.19555867644779462      273.15000000000003
0.08990031935699634       0                        0.17106834242840513      273.15000000000003
0.09792171700830724       0.028179574697869116     0.19298962869987707      275.9679574697869
0.11612372571206811       0.03379665870746235      0.16389585768807738      276.5296658707463
0.25000000000000006       0.047799791036657775     0                        277.92997910366574
0.20740926256224973       0.029121290667745138     0.058725113101707874     276.06212906677445
0.17011509941371464       0.2715825464281718       0.028069693488035737     300.30825464281753
0.18069585307411895       0.3199693425380097       0                        305.14693425380125
0.18091604923898716       0.21832646210583226      0                        294.98264621058337
0.14744213068045534       0.21877159940439722      0.03663685593050748      295.0271599404398
0.22337774828173523       0.1850820525597483       0                        291.6582052559751
0.1816354770120622        0.21964141089825842      0.04231522323344112      295.11414108982615
0                         0.17797062506914332      0.17963291189946787      290.9470625069144
0.20394052318519595       0.16570146046444403      0.022875269824214565     289.72014604644454
0.20736846592857555       0.1040347879531617       0.04575053964842913      283.5534787953163
0.24461959593791915       0.08048459281822103      0.04330645645058968      281.1984592818223
0.18450329808865665       0.14632086836913977      0.04575053964842913      287.78208683691423
0.15944400786333715       0.18110609374367073      0.05383375845178846      291.2606093743671
0.23742798614184457       0.15336339526058704      0.03165813853709488      288.4863395260588
0.0459842020632636        0.1093291790076481       0.22717186078011253      284.08291790076504
0.1930146101461483        0.2756333658501876       0                        300.7133365850189
0.0478582204302382        0.19279925031063433      0.16154220156598922      292.4299250310634
0                         0.17937526833919187      0.22607416115722076      291.08752683391924
0.04764894689469586       0.16759200396601706      0.18733492900940166      289.90920039660165
0.04628930344296656       0.21886341950374807      0.18444455943760732      295.03634195037506
0                         0.22251267488987342      0.19364631688504047      295.4012674889874
0.038753989578481425      0.24940159072244122      0.15459266622575527      298.09015907224426
0                         0.2781151026975785       0.18167999130925022      300.9615102697581
0                         0.3224575804619139       0.17771545205782985      305.39575804619165
0.0327047032939159        0.3414124395243223       0.1492176190904523       307.2912439524326
0.03896445689968265       0.28904967354945127      0.16432968696997338      302.0549673549452
0.1982440062252021        0.2989008977706435       0.04019491351663846      303.0400897770644
0.13947758509126396       0.3574779819791822       0                        308.89779819791863
0.12559420209227748       0.35278910434003447      0.04534630240096749      308.4289104340038
0.11144650546177623       0.40944915970625567      0                        314.094915970626
0.08358789798948812       0.45966702298665996      0                        319.1167022986665
0.24730979796895963       0.04024229640911051      0.045553123743623754     277.17422964091105
0.2777777777777779        0                        0                        273.15000000000003
0.2500361693342016        0.1379525340762204       0                        286.94525340762215
0.2646582368962284        0.10720706284502854      0.03165813853709488      283.870706284503
0.2778382497905029        0.09276938772863132      0                        282.42693877286314
0.13999412692446309       0.3903127923246094       0.05394775914426088      312.1812792324615
0.11397626311637296       0.4444114751422484       0.03431983649508997      317.59114751422544
0.02392273885205804       0.39835426983417627      0.14767860465232865      312.98542698341794
0                         0.40927908043064626      0.17093029310383054      314.0779080430649
0                         0.4515689668542555       0.14179682384492018      318.30689668542607
0.044819713349430086      0.443468739570897        0.10521824841755004      317.4968739570904
0.029747412452113937      0.42603851824332184      0.1436343842879463       315.7538518243327
0                         0.5                      0.11111111111111113      323.1500000000006
0.08478930607724891       0.5                      0.04064347402259983      323.15000000000055
0.11111111111111097       0.5                      0                        323.1500000000005
0.11340376426012719       0.47220573757112416      0.06159680201018737      320.3705737571127
0.05072507396952261       0.5                      0.08610984528753476      323.15000000000055
0.06689950277564473       0.47173436978544847      0.11740178356089051      320.32343697854526
0.07018225033419141       0.46768425614376924      0.07737475913885734      319.9184256143774
0                         0.13673636788646776      0.2500433320991961       286.8236367886469
0.029743339267556908      0.043762385606444694     0.23495193663513464      277.5262385606445
0.028190810554871167      0.07880512025269133      0.2559080180584831       281.0305120252691
0                         0.047799791036657775     0.25000000000000006      277.9299791036657
0                         0                        0.2777777777777779       273.15000000000003
0                         0.09559958207331554      0.27777777777777785      282.70995820733157
0                         0.047799791036657775     0.30555555555555575      277.9299791036657
0.049720569318145794      0.1480445684543538       0.22234996083936215      287.9544568454355
0                         0.3599204574996896       0.19862041588124263      309.1420457499692
0.039752252874920575      0.33685126608616583      0.18151509384165485      306.8351266086169
0.04784547770411608       0.3854952295440533       0.16794988093080124      311.69952295440555
0                         0.3120717271705557       0.2236178403615206       304.35717271705573
0.033667914595010846      0.27073777161228113      0.23130419566015964      300.2237771612282
0                         0.26593603207566896      0.2227513724983515       299.7436032075671
0.171680539459121         0.349576778476595        0.028069693488035737     308.1076778476599
0.21078979006653625       0.32997413544648085      0.028442648827517576     306.14741354464854
0.1956933725732447        0.35948787291106427      0                        309.0987872911068
0.04779979103665774       0                        0.25000000000000006      273.15000000000003
0.05948667853511387       0.03972498017623161      0.21990387327026922      277.12249801762306
0.13933542313733796       0                        0.14284823749314007      273.15000000000003
0.1603480147554677        0.03145897468760373      0.12801757077519696      276.2958974687605
0.25000000000000006       0                        0.04779979103665774      273.15000000000003
0.22181613267196482       0                        0.09403726521042266      273.15
0.20158836952278114       0.03145897468760373      0.10361208463383823      276.2958974687604
0.19490465440170066       0                        0.13837578635465803      273.15000000000003
0.09099209396752059       0                        0.22673399480245077      273.15000000000003
0.08342994632860297       0.038472869688145346     0.2654644268726908       276.9972869688145
0.1425660906702099        0                        0.20150729153419053      273.15000000000003
0.14753016922933562       0.03620354542982133      0.18384974070697205      276.77035454298215
0.12425460266491398       0.028179574697869116     0.2082091032527698       275.9679574697869
0                         0                        0.3333333333333335       273.15000000000003
0.04779979103665774       0                        0.30555555555555575      273.15000000000003
0.2256887561730442        0.3178941805167402       0                        304.9394180516743
0.23018119126777598       0.3131828564096472       0.03578291107428989      304.46828564096495
0.30555555555555575       0.047799791036657775     0                        277.9299791036657
0.28187072594726276       0.05693439768328039      0.040862373252750224     278.8434397683279
0.2550619181584281        0.04427139014445087      0.07777980866374302      277.5771390144452
0.2754888212845818        0.18329631829767876      0                        291.47963182976804
0.2553556082673139        0.1864537295199101       0.03221681776443531      291.7953729519912
0.2539893728406989        0.2182965229113977       0                        294.97965229114
0.2862710820166006        0.1619948399904724       0.026581432775395604     289.3494839990472
0.3115243181733861        0.09633982877917083      0.049343612119960925     282.783982877917
0.3333333333333335        0.09559958207331548      0                        282.70995820733157
0.23068044875514337       0.22536944399308392      0.045662552742673064     295.68694439930846
0.22262442862141327       0.2307676888814248       0                        296.22676888814266
0.2541468291578068        0.2657566412758805       0                        299.7256641275882
0.2039689287407755        0.2505208141106057       0.04858851624912998      298.2020814110608
0.25166704625393793       0.2485981575355999       0.03434298650372459      298.0098157535603
0.2965963638558685        0.23037926340932877      0                        296.1879263409331
0.2732832303927832        0.21954406377923322      0.032775496991775684     295.10440637792357
0.04264097045546462       0.1984677621467698       0.20935147831158957      292.99677621467714
0                         0.23038919018607107      0.2554470296859797       296.1889190186074
0                         0.27851613241164513      0.2540560495199147       301.00161324116476
0.046902670795216664      0.15697336172581508      0.259488395587078        288.84733617258155
0.03742372048069104       0.20413627398290532      0.2571607550571898       293.56362739829086
0                         0.18224089307004918      0.2825546739993756       291.3740893070052
0                         0.13927578590520368      0.30642482856648895      287.07757859052055
0.0364761897649838        0.18183478368203587      0.2820785544648842       291.3334783682038
0                         0.22380993518885856      0.3144882391607792       295.5309935188861
0.23888404717871453       0.2843481817247361       0.04434789681552465      301.5848181724739
0                         0.266924720985487        0.2998960817822434       299.84247209854897
0.03742372048069104       0.24791100030605284      0.29407171536970117      297.94110003060547
0.04679980245592525       0.3322900926480094       0.2138125685928574       306.37900926480137
0.04107205346819299       0.24641929450145733      0.25070931633946325      297.791929450146
0.044720386455694934      0.24492758869686182      0.2073469173092254       297.64275886968625
0.04679980245592525       0.29138741524695383      0.2053423563068612       302.28874152469575
0.16722791897066877       0.40561717843867584      0                        313.71171784386786
0.17398172192967823       0.3928616951162232       0.045367800020488354     312.4361695116225
0.13831309953388576       0.4534544379969583       0                        318.49544379969626
0.2798242518625203        0.02846719884164018      0.06823097766303284      275.99671988416407
0.30555555555555575       0                        0.04779979103665774      273.15000000000003
0.3333333333333335        0                        0                        273.15000000000003
0.3049499596941262        0.139276017319612        0                        287.0776017319613
0.3266930813739953        0.1841387903794191       0                        291.56387903794206
0.33725562186642144       0.11567242097418837      0.02891242549358581      284.7172420974187
0.36042847256552385       0.13935251109031657      0                        287.0852511090317
0.388888888888889         0.09559958207331545      0                        282.70995820733157
0.20796931693489346       0.395410597907837        0.03678784089671589      312.69105979078427
0.16721928568445368       0.44515639616230473      0.050873775090459275     317.66563961623075
0                         0.4514521695695421       0.19470822664375578      318.2952169569545
0.13971075575609732       0.5                      0.047215631186654006     323.15000000000055
0.16666666666666652       0.49999999999999994      0                        323.1500000000005
0.049192782544708616      0.3882640442051458       0.2115653879721845       311.97640442051494
0                         0.4063780954294653       0.22440830880617124      313.7878095429469
0.037084968229512856      0.4237688967922192       0.1927174625451768       315.5268896792223
0.029747412452113937      0.4704318631811723       0.1632640534343516       320.1931863181178
0                         0.5000000000000001       0.16666666666666669      323.1500000000005
0.04827155635506358       0.5                      0.14506183715023896      323.1500000000005
0.11283126540388139       0.5                      0.08887376752528468      323.1500000000005
0.16807704456206043       0.47257819808115237      0.07282576384493923      320.4078198081158
0.11474498047976081       0.46157380133501835      0.11874041849637637      319.30738013350225
0.08897929220185943       0.5                      0.129585318704231        323.1500000000005
0.07423705855304365       0.47043186318117225      0.14472337945313377      320.19318631811774
0.03363359761786212       0.11314195208047764      0.30233309358897775      284.4641952080476
0.0520907060732           0.05490522473436245      0.28368579583626097      278.6405224734362
0.07579404226444532       0.03337917885413239      0.2989960723571899       276.48791788541337
0                         0.0955995820733155       0.3333333333333335       282.70995820733157
0.04071669432725989       0.05657097604023882      0.3317221023500445       278.8070976040238
0                         0.047799791036657706     0.3611111111111112       277.9299791036657
0.054437416263773755      0.0424282320301791       0.3599026878736445       277.39282320301794
0                         0.3590338498949641       0.25006420674047897      309.0533849894968
0.04866994492061323       0.3616614757571239       0.23449673180321257      309.31614757571265