% Model:              2-D_plane_model.mph
% Version:            COMSOL 5.4.0.225
% Date:               Dec 12 2018, 15:05
% Dimension:          2
% Nodes:              217
% Expressions:        1
% Description:        温度
% Length unit:        m
% X                       Y                        T (K)
0.025605542070014545      0.005660380334743139     301.8194595868375
0.02                      0                        293.15
0.02888888888888865       0                        293.15
0.019999999999999997      0.007999999999999997     305.580131367708
0.0331520762787104        0.007386315738551551     303.9541682128751
0.03777777777777758       0                        293.15
0.026291558795752117      0.012264638931893144     312.1296773686203
0.019999999999999997      0.015999999999999993     318.56753284647783
0.04238692948949704       0.006571861880429705     301.7482493621314
0.046666666666666495      0                        293.15
0.026465406969670494      0.01976553996773628      324.5501046807179
0.02                      0.02399999999999999      332.7594481481204
0.05116731130199875       0.006621411235328688     300.56721496418294
0.055555555555555414      0                        293.15
0.02658326619028489       0.027372095758113054     338.4678108874447
0.02                      0.03199999999999999      348.9993280140718
0.05988716652371489       0.006944418981097113     299.50000370679226
0.06444444444444433       0                        293.15
0.026146882746798206      0.03379109355806738      352.00615443557575
0.02                      0.04                     368.44056362961953
0.03                      0.04                     364.8375086106893
0.06869125605086819       0.007302899264544238     298.2865137495509
0.07333333333333325       0                        293.15
0.07751674199106116       0.007191494661688034     296.7241795724192
0.08222222222222217       0                        293.15
0.03401652763739683       0.031508605556235296     343.33808524272035
0.04                      0.04                     353.966065066447
0.08627015138886983       0.0065245577019779665    295.1052101353692
0.09111111111111109       0                        293.15
0.0938480634018383        0.005969192783146804     293.9463955406325
0.1                       0                        293.15
0.04                      0.048571428571428606     367.49698241039897
0.04784629012065232       0.044552178061968956     348.57968641781804
0.1                       0.009333333333333364     293.15
0.04754834696912586       0.052780762678859984     357.07797183561917
0.04                      0.057142857142857176     376.2908835785477
0.1                       0.018666666666666696     293.15
0.09175330691916198       0.014019963832389553     295.6421041186309
0.04749119055052134       0.06127332696026683      362.3865157802561
0.04                      0.06571428571428575      380.6150317800007
0.09267619907130438       0.023642446804172185     296.8115354715567
0.1                       0.02800000000000003      293.15
0.026209732589365094      0.11200068943009352      339.7931272475819
0.02                      0.11600000000000002      332.7590070879245
0.02                      0.10800000000000001      348.99912695806483
0.02                      0.1                      368.44009645856494
0.02613821100497929       0.1058811284878001       352.7479800473271
0.04746780323211013       0.06985218056012234      364.24585018509623
0.04                      0.07428571428571432      380.614613866893
0.09266010974777376       0.03267450548565529      298.0751585697972
0.1                       0.03733333333333336      293.15
0.026142315972432557      0.11892937211957022      326.8822909606925
0.02                      0.12400000000000003      318.5685129139748
0.03                      0.1                      364.83731340490164
0.04744974733894766       0.07843815768333257      362.58806545769954
0.04                      0.08285714285714288      376.2896073815302
0.047450383258036154      0.08684454964173301      357.5586894598785
0.04                      0.09142857142857146      367.49484106795154
0.09257634392273557       0.04186766850915766      299.25107483081973
0.1                       0.04666666666666669      293.15
0.027853586930918318      0.1269751801919123       313.1920974082927
0.02                      0.132                    305.5783033621479
0.025986808522620936      0.13456972675073015      301.45173535239434
0.02                      0.14                     293.15
0.04                      0.1                      353.96493164022684
0.033569711425972044      0.10813887197348933      344.3022620929069
0.04790310037192335       0.0950100571428933       348.9797813290973
0.09249527814937186       0.05118271424714127      300.2117596206695
0.1                       0.05600000000000002      293.15
0.02888888888888889       0.14                     293.15
0.0924698170852903        0.06055915120644528      300.8116091586721
0.1                       0.06533333333333335      293.15
0.03319156679329748       0.1338734535617383       302.09358747764963
0.03777777777777778       0.14                     293.15
0.0924513150461304        0.06995067120296641      301.03066515268625
0.1                       0.07466666666666669      293.15
0.042086757078475034      0.13297114929140327      302.3909273970035
0.046666666666666676      0.14                     293.15
0.09243027624143321       0.0793303864598444       300.8569062888641
0.1                       0.08400000000000002      293.15
0.05098615646107815       0.13240625630606015      301.6920597069725
0.055555555555555566      0.14                     293.15
0.09234912530505654       0.08865129064457541      300.36404891386616
0.1                       0.09333333333333335      293.15
0.05911757084469693       0.13249123115010142      300.1554165178927
0.06444444444444444       0.14                     293.15
0.09224234279096417       0.09801095442812784      299.5419624295769
0.1                       0.10266666666666668      293.15
0.06804087711930426       0.13260271714927252      298.4672166640591
0.07333333333333335       0.14                     293.15
0.09229885663331461       0.10735788954036217      298.31500545089693
0.1                       0.11200000000000002      293.15
0.07690946471222          0.1325884004389762       296.9366834656666
0.08222222222222224       0.14                     293.15
0.09268011320577972       0.11660626975213421      296.7733698258258
0.1                       0.12133333333333335      293.15
0.08613639826660502       0.13181288419443513      295.625163109834
0.09111111111111113       0.14                     293.15
0.0931437830629603        0.12592332042136153      295.22790899278516
0.1                       0.13066666666666668      293.15
0.0940782584881353        0.13368057425649266      293.9611984250856
0.1                       0.14                     293.15
0.039534193629911674      0.013636541118194836     311.9291297540208
0.03267072154913087       0.015940356013999138     317.0343712549664
0.037712726342935585      0.019420227760061234     320.9820273291119
0.04376201448251732       0.019333038365061856     318.4297469327628
0.047261035425537605      0.013210449102587342     309.20602437110256
0.03286471025736155       0.023170651691800024     328.8089597014909
0.0397319917957565        0.0250205516112503       328.6988908591092
0.04687152400665164       0.025275538231722506     324.76108681048555
0.05117391463569996       0.019580291942037215     315.3244994636214
0.055541849013600854      0.013519550074471738     306.95088674303423
0.04314986346927547       0.031422273653382134     336.1928010681008
0.04955021213458606       0.030351479994574816     329.28079608083505
0.05385936030958422       0.02594627656900851      320.9185229072263
0.05934120301117041       0.02027190396739439      311.9759085838214
0.06418169986453379       0.014420626783169467     304.8333638413715
0.048709950433135696      0.0363854550000863       337.6076784029705
0.05515371721431804       0.03273046950501281      327.0477591563235
0.061065590855079246      0.027467975773309332     317.37603957811535
0.06827123956366771       0.022868596830714502     309.299180992764
0.07284972445262393       0.015002088729414042     302.1878665081942
0.08173376449844966       0.014319422274191959     298.8580951811555
0.05516266031749418       0.04026864292790008      334.4164081944163
0.062374848399098196      0.03569578172444021      323.005137479961
0.06702484133875225       0.03043264255487936      315.2964851799292
0.07258054090079422       0.029167301998947553     310.5171913711209
0.0779828864430211        0.023395168969656325     304.31497606822546
0.08592462276395893       0.020728006236957343     299.411209099886
0.05496936349591441       0.0483921593581941       341.53839628929495
0.06176603479024091       0.04408186307413504      329.6540395331728
0.06625971433598986       0.040863730567536845     322.7050906665435
0.07132392676402152       0.03710024230656149      315.7876406539862
0.07829981039450852       0.03203985933292607      307.8667906053236
0.08547948786079261       0.028266368371507995     301.79954328581516
0.05498323276332471       0.05675262553400079      346.6891657008038
0.0625096160146484        0.05191688387229972      333.2047744613185
0.06983779756451644       0.04582689903476804      321.53471947921395
0.07787890742320994       0.041494754903108326     311.82992382407383
0.08533646280334946       0.03712134724522381      304.2411179212583
0.054937364888314764      0.06535214844580367      349.59579384498915
0.062377880125166665      0.06060460483261934      336.6393079608811
0.06991393209559886       0.05576800605860719      325.1411564811576
0.07751815873513529       0.05092688829478926      315.0887655129422
0.08512651506917696       0.04638737270653189      306.48867895412315
0.03139967080524336       0.11505403241904344      332.4380972092609
0.05493724100467824       0.0740455679915715       349.69350182374416
0.062371275055300414      0.06958879513984534      337.8875529386809
0.06984867293281288       0.06498450492603702      327.0347470159814
0.07739790739332605       0.060354776029975715     317.1154406456481
0.08496459415575246       0.05574058740534662      308.1758609157342
0.0324633036603972        0.12025423484195882      323.20217028798714
0.038370980048622876      0.1159262609420523       327.92745016773284
0.0428624623813243        0.10810940017006297      337.1564067723566
0.0549807269893981        0.08259807932086709      346.9986135816176
0.055121259103193126      0.09089792994783644      341.83935716355785
0.06246867872204362       0.07842476223066204      336.74727116375067
0.06992593096462926       0.07415953112738555      327.01415540733666
0.07737591216578957       0.06970532599750895      317.8155722262577
0.08492303291658047       0.06515951685431466      309.0388146778432
0.03745564604269138       0.12516410361301017      314.19868652912595
0.04361219020114297       0.12037853929130948      318.89003872574915
0.0464489087147585        0.11461985411074335      325.17055797627745
0.04896541337803603       0.10348519159654315      337.4879449421414
0.049654253584478114      0.10950402731340515      329.37113787748603
0.05559797397824374       0.09910400307210264      334.47599268965683
0.06250672737329079       0.08694231545809916      333.741735198605
0.06248317502536563       0.09495623858426712      329.4259470158447
0.07010158757622373       0.08321720231653464      325.1863371202093
0.0774475170783124        0.07906315661708677      317.1361200032546
0.08489067444265792       0.07465787303715224      309.0824783602341
0.04927085167025358       0.11997683657946512      316.7732299253304
0.04644272872933874       0.12638308226761097      309.9583387176287
0.05436819762938063       0.1152510314171838       319.29303392245737
0.055678040181000164      0.10712190023281015      326.72147346827666
0.06347931688248519       0.10316754166281417      322.80442823782374
0.06988493682352051       0.09155968034842771      322.61025139424356
0.06831705360146116       0.09806842748133578      321.20846379827026
0.07749736641344472       0.0885924317710136       315.23431875979173
0.08489394304553086       0.08404671825111575      308.2767285025857
0.05509697656110536       0.12412525949134473      309.54606136546994
0.06116271661187248       0.11932491420769446      311.40572812290924
0.06317244560124366       0.11209903486851083      316.2436150916023
0.07040683891759082       0.10296747436844318      316.5616613687443
0.06871016988601941       0.10785912336272076      315.1162360785555
0.07585788240048745       0.09790063234145575      313.91701962970836
0.08456108920015641       0.09337196027216765      307.06431618723997
0.063454878456071         0.12572291428169724      304.970098596922
0.06824403951695596       0.11917309899975523      307.9059170760232
0.07056463850099177       0.11279563419659733      310.72706882831926
0.07587037649983888       0.1076269202069023       309.7851957310765
0.08424303212335077       0.10273311725056977      305.135632714547
0.07215119748233909       0.1254572781985419       302.1535042057921
0.07667392630458057       0.11700742401178472      304.82034392475254
0.0846276452153431        0.11213034671440296      302.20370078424617
0.0795683058409563        0.12566084563220886      299.5676771919032
0.08596792694837903       0.12144019653771365      298.7615014578714
0.025970162465702624      0.04615592164102952      381.2175691219426
0.02                      0.048571428571428585     387.3407043487917
0.03291749228239279       0.04690745152309827      376.5714886530928
0.027008312977340448      0.05334716074036051      392.08446058278304
0.020000000000000004      0.05714285714285717      399.02211133107176
0.026044864128553138      0.06245749301954338      401.04733763441845
0.02                      0.06571428571428575      404.60227414552327
0.026141715556627157      0.07128157737894504      403.0022297557999
0.02                      0.07428571428571434      404.60314520940386
0.03452647825131369       0.05337019818577095      383.44976418379855
0.02646005426571027       0.07983021237802501      399.28145575106123
0.02                      0.08285714285714293      399.02405071850353
0.03281676527583051       0.06025689278324815      392.2898635407325
0.026468533240415863      0.08809684746702247      390.52933926249784
0.02                      0.09142857142857151      387.34114808879957
0.025621707955927116      0.09415707451435017      380.77946236359134
0.03280308914616974       0.06851026352708112      395.4604474815549
0.03307927647911272       0.0770321288474823       393.4395923466405
0.03307079990616916       0.08542786265798545      386.97596406429824
0.03252684018375202       0.09318505934465492      376.88315440133084
