% Model:              2-D_plane_model1.mph
% Version:            COMSOL 5.2.1.152
% Date:               Feb 26 2019, 15:59
% Dimension:          2
% Nodes:              208
% Expressions:        1
% Description:        温度
% Length unit:        m
% x                       y                        T (K)
0.02                      0.008                    305.94280705304476
0.02                      0                        273.15
0.025497223459392305      0.005490331377192716     295.2701438683081
0.028466225178970257      0                        273.15
0.02                      0.016                    340.5762868913963
0.026306889230874153      0.012136694322603734     322.6118548091163
0.03740717422612565       0                        273.15
0.03293456006876181       0.007058399805460785     300.09765872158226
0.02                      0.024000000000000004     379.4958423689093
0.02653980453619809       0.020070112593695382     357.71912871649783
0.04634900647953627       0                        273.15
0.04197276668417323       0.006734038117965437     295.8788061047907
0.05529083873294689       0                        273.15
0.050694683978215936      0.007073377107744812     293.3499498441267
0.06423267098635752       0                        273.15
0.059610661137169306      0.007227251775641314     289.74952222269957
0.02                      0.03200000000000001      427.1876231783642
0.02681858859367116       0.02795911583038374      397.4046453067567
0.07317450323976814       0                        273.15
0.06861698637459829       0.0072811753820988395    285.84367276839333
0.08211633549317876       0                        273.15
0.07764541936647346       0.007240503385123538     281.946138636664
0.02                      0.04                     505.3691269562407
0.02697375585169527       0.03608613748247246      446.44308119564215
0.09105816774658938       0                        273.15
0.0861785348393811        0.006523799117734413     277.9758599976022
0.1                       0                        273.15
0.09385284105724873       0.005902680590224744     275.0769130986103
0.02                      0.04835790409524163      581.3970806265045
0.027039843543329972      0.044357888495478254     501.5112912428644
0.1                       0.00913448514434536      273.15
0.02                      0.05701467850990266      617.7497196260796
0.027082935537107902      0.05281737355943255      542.4424738791017
0.1                       0.01849833818115786      273.15
0.09187662614099759       0.013923838796122703     279.1128395280044
0.02                      0.06567155950330086      634.1513751392268
0.027123993479595015      0.06147512774881472      565.6023453972534
0.1                       0.027862276693674592     273.15
0.09259052466190965       0.023674948930308273     282.19482550664367
0.02                      0.07432844049669907      634.1521180843145
0.027165072559196205      0.07014835374714869      572.6057438201498
0.02                      0.08298532149009727      617.7524836165288
0.027199923243248558      0.07884200171110868      564.4326955089773
0.1                       0.03722621520619133      273.15
0.09252789106741723       0.03272826865746737      285.35310003423587
0.02                      0.09164209590475832      581.3966717050735
0.02720135540356332       0.08753405629033711      540.2185288154689
0.02                      0.1                      505.4063996358606
0.02706298026651673       0.09608943611403016      498.63723038826635
0.02                      0.10800000000000001      427.2005933357253
0.026716055719268147      0.10428454640331963      444.66104224014015
0.02                      0.11600000000000002      379.5007691674266
0.0263491778125052        0.11212955339400493      397.4422964277
0.1                       0.04659015371870806      273.15
0.09243968083243365       0.04196968492384807      288.22632814142315
0.02                      0.12400000000000003      340.5783228697244
0.026157751358668         0.11981186833598083      358.4889942589502
0.1                       0.05595409223122479      273.15
0.09242780745103905       0.05126001180009734      290.37108597924276
0.02                      0.132                    305.94385505986116
0.026171251084930375      0.12770574089550776      323.3192167168823
0.02                      0.14                     273.15
0.025519432175154493      0.13446944775727948      295.43149796155024
0.1                       0.06531803074374153      273.15
0.09242518638510322       0.0605864477126901       291.7283507839483
0.02846622517897028       0.14                     273.15
0.1                       0.07468196925625825      273.15
0.09244161067774827       0.0699273780010891       292.15518264055805
0.03740717422612561       0.14                     273.15
0.033113877215166926      0.13275308739192498      300.77269535501927
0.1                       0.08404590776877499      273.15
0.09248124293797871       0.07923538639348635      291.60680757089
0.04634900647953623       0.14                     273.15
0.04279216935179331       0.1328207178877966       297.05784428896794
0.1                       0.09340984628129172      273.15
0.09249264228955514       0.08863051422705384      290.2427867658325
0.05529083873294684       0.14                     273.15
0.051096082789190124      0.13278116959336497      293.58546609889487
0.1                       0.10277378479380846      273.15
0.09251485795217987       0.0980422897801051       288.07204838000183
0.06423267098635746       0.14                     273.15
0.05965481735487958       0.13254548188620713      290.25022408953805
0.1                       0.11213772330632518      273.15
0.09258004843205066       0.1074240498275454       285.2188950354728
0.07317450323976807       0.14                     273.15
0.06833540678601635       0.13258603467084018      286.1999213627273
0.1                       0.12150166181884191      273.15
0.0928335253308669        0.11676825495392708      281.74340493228686
0.08211633549317868       0.14                     273.15
0.07691126908122552       0.1325088663656495       282.5632719636373
0.1                       0.13086551485565462      273.15
0.09334042689190883       0.12581831787042808      278.12045826595505
0.0910581677465893        0.14                     273.15
0.08611536929318195       0.13159989690574908      279.38372203026233
0.1                       0.14                     273.15
0.09410389936655146       0.13365557106278955      275.1352668688523
0.03286974732089269       0.016201322159273526     336.437128799453
0.03914017993970065       0.013033548416450965     319.5536181411494
0.03354911939156565       0.02388211849884272      368.5860388101377
0.04607907077467666       0.013928722830295235     317.0916941030387
0.04028278023485379       0.019551066661269673     342.4189531774348
0.054866381268039326      0.01455375664456273      310.91946561341496
0.06398314424784406       0.014572272084533487     302.55021419897844
0.033932012941188076      0.031991357428871395     405.46876373630107
0.041095659271052694      0.02769493599966509      371.6455402180256
0.04943362846072004       0.02272494887209099      340.34106020356654
0.07302083648183832       0.014706510902276843     294.8029690025307
0.08192278884132237       0.014298206790299384     286.9700345186349
0.05935217695475332       0.021870708855770214     323.3870217132657
0.06835011313598743       0.0218624530825481       311.0363809737594
0.03405328499297536       0.04027401263609955      445.1990924103547
0.04110065637052041       0.03608761797903777      403.29848166844073
0.0482757582274682        0.03193250655787799      370.2598019325035
0.056079916251567906      0.029618209645049326     346.95062696533
0.08587926632510674       0.020645541957790614     288.43937468057584
0.07760656692480436       0.022984454689057715     300.48620377258663
0.06411567567409752       0.029521259652720094     331.14382498969735
0.07128948092947132       0.02872864716802507      317.14563075348366
0.034128531771812916      0.048711562581836794     481.0481079289098
0.04114296620296184       0.044492249233404814     432.75441467496074
0.04810372374055285       0.040160322916509984     394.558424417322
0.053801902269221574      0.036077871628256944     367.6718105533697
0.06053557720047898       0.036469782138668465     351.688218721175
0.0851852462629724        0.02829321487055891      294.6785167145918
0.07756176111496497       0.032395890316907504     310.641582394056
0.06942954203882903       0.03713993067677096      332.3334110121505
0.034205247764930474      0.05731929066940472      506.150448240735
0.041244531676385136      0.05311646157223149      456.4113358417366
0.0482260156018988        0.04863934995873844      415.15319131016514
0.05607504377124622       0.04373234214174395      377.72557692765577
0.06371138319791164       0.042729079087469535     354.11081411975056
0.08500244784564957       0.037280773140671554     300.7950987085062
0.07740671024677898       0.04175498707055886      319.67551003588346
0.0700859999913826        0.046264583825772        341.5944559363042
0.034286990319428105      0.06602116056440892      518.1944627497079
0.04136189478481612       0.06190857712732958      470.9272848100746
0.04840164176336343       0.05768032516668892      430.35547472927095
0.055480395391671856      0.05305084253227022      395.1429553078287
0.0624495447850541        0.0500218212825016       367.6265118559877
0.08493458122913206       0.04649829475001586      305.8858471141038
0.07747673685513116       0.05089559985620218      326.188507310268
0.07006956785033235       0.05501229612776579      349.2161961434753
0.03437434964469103       0.07474050447012044      517.0326815902563
0.041487795595311475      0.07069661003157941      474.74813232095363
0.048546569074202704      0.06670091621909786      437.33106401981075
0.05555044405120597       0.06266580359046593      404.5102219708629
0.06276936934252095       0.05878789225613096      375.0569489543299
0.03446016883174078       0.08347613661412467      502.7159658673946
0.08493723219205734       0.055732513559656444     309.44924747911597
0.07751325693383271       0.0600019349495651       330.41540909358406
0.07016864228290218       0.06403702910121194      353.3449897929044
0.041642978391211484      0.07937985395006016      467.8232521051803
0.04871861311931903       0.0755223771793171       435.4434876552946
0.055767882551897206      0.07174916498331528      405.76707744953086
0.06291372347904321       0.06791767726921276      378.42485366398023
0.03450148769049247       0.09229094674571768      475.2457244827737
0.041840875279965106      0.08815701862235764      450.4710292386695
0.03398766976849268       0.10086815576871762      440.0062488655611
0.03293181682336907       0.10867605066904429      404.52322804618916
0.032291562774220156      0.11600792742590459      370.7192871954906
0.08496136412986983       0.0649873598496876       311.28974839188237
0.07756222322773217       0.06920265409155979      331.94516186815605
0.07023868906559382       0.07321672942039319      353.7249446632516
0.04897620169669057       0.0840131746556229       425.43631648987065
0.05590673379255715       0.0806168877446811       400.6366423543723
0.06299856818887258       0.07703309392236997      376.6808031476014
0.04900411693236778       0.09208881277704194      410.5437639420226
0.042460298137287536      0.09769318699157857      420.47830226025286
0.049807572155376935      0.09873877694245066      392.00277299871397
0.04026306605604257       0.10620730615136277      396.95922783631653
0.03895659600137583       0.11337486571484692      371.5634926130194
0.03726811853787068       0.11937283941235492      350.179743495586
0.03223644576059285       0.12320004188786138      339.3874248921193
0.08498079571183315       0.07432103699506022      311.3082580023666
0.07758892687342128       0.07850719190232051      330.66457630290944
0.07023975493305769       0.0825336446881888       350.2729727089764
0.05607456457690655       0.08920065268505314      389.77885302778753
0.06292462531108631       0.08616445942842868      370.3194678781117
0.055280874400656266      0.09646811706227773      379.79332402389286
0.0475076238570082        0.10466582500125476      382.433443408158
0.05319430637279004       0.10210247225391036      373.6533130193306
0.046037099987673004      0.1119548286146112       362.97606802820627
0.04339552881680605       0.11911320425206563      343.21930279719277
0.039358796346267204      0.12545237867793665      324.9176924057522
0.08500794612965264       0.08365607064734808      309.45126899767683
0.0775522754943092        0.08797447525318038      326.6649239033622
0.0701466992737964        0.0922895678610507       342.8824361468332
0.06215038247902436       0.09490099780663484      361.92953166453077
0.05967222231361704       0.1027786292339395       355.2317388811916
0.05432832888386651       0.10960443333082394      352.4761802478943
0.0510487394884134        0.11805341373461778      335.6299826242238
0.04719822341524784       0.1255061192246498       317.87953671977226
0.084984115273031         0.0931143758164006       305.95414793107926
0.07735855868054498       0.09771514903102518      320.22795049833115
0.06880330899808357       0.1025045605690593       334.19752056321676
0.06346697437764288       0.1101717278132615       332.9265315670145
0.059371335789921036      0.11750413666417245      324.7626750774252
0.0553599120914415        0.12524549595507287      310.97176754706555
0.08498937873665434       0.10260264922641109      300.89008864669046
0.07737764318848382       0.10717219691554077      311.40969659397336
0.07082417805333692       0.11099835313338101      318.3233897761507
0.06780247013959745       0.11764025370173126      312.60664456620725
0.06379027371099698       0.1250826546274251       303.4172946677025
0.08512095105093342       0.11211516709541015      294.49298368456147
0.07709429073227299       0.11697088641076825      301.2006348336342
0.07223916322841809       0.12505693225357625      295.83014579051627
0.08595972561030849       0.12161260980501185      286.75521956646816
0.07952790509690677       0.12563816076955503      288.9481467306627
